<?xml version="1.0"?>
<VTKFile type="StructuredGrid">
<StructuredGrid WholeExtent="0 10 0 10 0 0">
<Piece Extent="0 10 0 10 0 0">
<Points>
<DataArray NumberOfComponents="3" type="Float32" format="ascii">
0 0 0
100 0 0
200 0 0
300 0 0
400 0 0
500 0 0
600 0 0
700 0 0
800 0 0
900 0 0
1000 0 0
0 100 0
100 100 0
200 100 0
300 100 0
400 100 0
500 100 0
600 100 0
700 100 0
800 100 0
900 100 0
1000 100 0
0 200 0
100 200 0
200 200 0
300 200 0
400 200 0
500 200 0
600 200 0
700 200 0
800 200 0
900 200 0
1000 200 0
0 300 0
100 300 0
200 300 0
300 300 0
400 300 0
500 300 0
600 300 0
700 300 0
800 300 0
900 300 0
1000 300 0
0 400 0
100 400 0
200 400 0
300 400 0
400 400 0
500 400 0
600 400 0
700 400 0
800 400 0
900 400 0
1000 400 0
0 500 0
100 500 0
200 500 0
300 500 0
400 500 0
500 500 0
600 500 0
700 500 0
800 500 0
900 500 0
1000 500 0
0 600 0
100 600 0
200 600 0
300 600 0
400 600 0
500 600 0
600 600 0
700 600 0
800 600 0
900 600 0
1000 600 0
0 700 0
100 700 0
200 700 0
300 700 0
400 700 0
500 700 0
600 700 0
700 700 0
800 700 0
900 700 0
1000 700 0
0 800 0
100 800 0
200 800 0
300 800 0
400 800 0
500 800 0
600 800 0
700 800 0
800 800 0
900 800 0
1000 800 0
0 900 0
100 900 0
200 900 0
300 900 0
400 900 0
500 900 0
600 900 0
700 900 0
800 900 0
900 900 0
1000 900 0
0 1000 0
100 1000 0
200 1000 0
300 1000 0
400 1000 0
500 1000 0
600 1000 0
700 1000 0
800 1000 0
900 1000 0
1000 1000 0
</DataArray>
</Points>
<CellData>
<DataArray Name="h" type="Float32" format="ascii">
10
10
10
10.0088
10.0767
10.0767
10.0088
10
10
10
10
10
10.0116
10.103
10.3933
10.3933
10.103
10.0116
10
10
10
10.0116
10.1178
10.4087
10.7732
10.7733
10.4086
10.1179
10.0116
10
10.0088
10.103
10.4087
10.6399
10.4932
10.4934
10.6387
10.4093
10.1032
10.0088
10.0767
10.3933
10.7732
10.4932
9.69651
9.69381
10.4923
10.7732
10.3953
10.0769
10.0767
10.3933
10.7733
10.4934
9.69381
9.69112
10.4925
10.7732
10.3953
10.0769
10.0088
10.103
10.4086
10.6387
10.4923
10.4925
10.6375
10.4092
10.1032
10.0088
10
10.0116
10.1179
10.4093
10.7732
10.7732
10.4092
10.118
10.0116
10
10
10
10.0116
10.1032
10.3953
10.3953
10.1032
10.0116
10
10
10
10
10
10.0088
10.0769
10.0769
10.0088
10
10
10
</DataArray>
<DataArray Name="hu" type="Float32" format="ascii">
0
0
0
-0.0257367
-0.0257367
0.0257367
0.0257367
0
0
0
0
0
-0.0498388
-0.395714
-0.345401
0.345401
0.395714
0.0498389
0
0
0
-0.0646779
-0.630763
-2.12931
-1.54261
1.54261
2.1293
0.630767
0.0646906
0
-0.0612261
-0.706173
-2.82076
-4.70549
-2.48901
2.48892
4.70587
2.82102
0.70669
0.0612494
-0.793336
-4.46431
-10.4171
-10.4063
-4.15971
4.16903
10.4341
10.4378
4.48701
0.795623
-0.793336
-4.46431
-10.4179
-10.4097
-4.16198
4.17126
10.4375
10.4386
4.48701
0.795623
-0.0612261
-0.706145
-2.81908
-4.69233
-2.47821
2.47812
4.69271
2.81935
0.706664
0.0612494
0
-0.0647019
-0.631682
-2.13642
-1.54868
1.54868
2.13642
0.631687
0.064713
0
0
0
-0.049868
-0.396786
-0.346442
0.346442
0.396786
0.049868
0
0
0
0
0
-0.0257611
-0.0257611
0.0257611
0.0257611
0
0
0
</DataArray>
<DataArray Name="hv" type="Float32" format="ascii">
0
0
0
-0.0612261
-0.793336
-0.793336
-0.0612261
0
0
0
0
0
-0.0646779
-0.706173
-4.46431
-4.46431
-0.706145
-0.0647019
0
0
0
-0.0498388
-0.630763
-2.82076
-10.4171
-10.4179
-2.81908
-0.631682
-0.049868
0
-0.0257367
-0.395714
-2.12931
-4.70549
-10.4063
-10.4097
-4.69233
-2.13642
-0.396786
-0.0257611
-0.0257367
-0.345401
-1.54261
-2.48901
-4.15971
-4.16198
-2.47821
-1.54868
-0.346442
-0.0257611
0.0257367
0.345401
1.54261
2.48892
4.16903
4.17126
2.47812
1.54868
0.346442
0.0257611
0.0257367
0.395714
2.1293
4.70587
10.4341
10.4375
4.69271
2.13642
0.396786
0.0257611
0
0.0498389
0.630767
2.82102
10.4378
10.4386
2.81935
0.631687
0.049868
0
0
0
0.0646906
0.70669
4.48701
4.48701
0.706664
0.064713
0
0
0
0
0
0.0612494
0.795623
0.795623
0.0612494
0
0
0
</DataArray>
<DataArray Name="b" type="Float32" format="ascii">
0
0
0
0
0
0
0
0
0
0
0
0
0
0
0
0
0
0
0
0
0
0
0
0
0
0
0
0
0
0
0
0
0
0
0
0
0
0
0
0
0
0
0
0
0
0
0
0
0
0
0
0
0
0
0
0
0
0
0
0
0
0
0
0
0
0
0
0
0
0
0
0
0
0
0
0
0
0
0
0
0
0
0
0
0
0
0
0
0
0
0
0
0
0
0
0
0
0
0
0
</DataArray>
</CellData>
</Piece>
</StructuredGrid>
</VTKFile>
