<?xml version="1.0"?>
<VTKFile type="StructuredGrid">
<StructuredGrid WholeExtent="0 10 0 10 0 0">
<Piece Extent="0 10 0 10 0 0">
<Points>
<DataArray NumberOfComponents="3" type="Float32" format="ascii">
0 0 0
100 0 0
200 0 0
300 0 0
400 0 0
500 0 0
600 0 0
700 0 0
800 0 0
900 0 0
1000 0 0
0 100 0
100 100 0
200 100 0
300 100 0
400 100 0
500 100 0
600 100 0
700 100 0
800 100 0
900 100 0
1000 100 0
0 200 0
100 200 0
200 200 0
300 200 0
400 200 0
500 200 0
600 200 0
700 200 0
800 200 0
900 200 0
1000 200 0
0 300 0
100 300 0
200 300 0
300 300 0
400 300 0
500 300 0
600 300 0
700 300 0
800 300 0
900 300 0
1000 300 0
0 400 0
100 400 0
200 400 0
300 400 0
400 400 0
500 400 0
600 400 0
700 400 0
800 400 0
900 400 0
1000 400 0
0 500 0
100 500 0
200 500 0
300 500 0
400 500 0
500 500 0
600 500 0
700 500 0
800 500 0
900 500 0
1000 500 0
0 600 0
100 600 0
200 600 0
300 600 0
400 600 0
500 600 0
600 600 0
700 600 0
800 600 0
900 600 0
1000 600 0
0 700 0
100 700 0
200 700 0
300 700 0
400 700 0
500 700 0
600 700 0
700 700 0
800 700 0
900 700 0
1000 700 0
0 800 0
100 800 0
200 800 0
300 800 0
400 800 0
500 800 0
600 800 0
700 800 0
800 800 0
900 800 0
1000 800 0
0 900 0
100 900 0
200 900 0
300 900 0
400 900 0
500 900 0
600 900 0
700 900 0
800 900 0
900 900 0
1000 900 0
0 1000 0
100 1000 0
200 1000 0
300 1000 0
400 1000 0
500 1000 0
600 1000 0
700 1000 0
800 1000 0
900 1000 0
1000 1000 0
</DataArray>
</Points>
<CellData>
<DataArray Name="h" type="Float32" format="ascii">
10
10
10
10
10.0102
10.0102
10
10
10
10
10
10
10
10.0146
10.1406
10.1406
10.0146
10
10
10
10
10
10.017
10.158
10.6258
10.6258
10.158
10.017
10
10
10
10.0146
10.158
10.549
10.9689
10.969
10.5487
10.1582
10.0146
10
10.0102
10.1406
10.6258
10.9689
10.5983
10.5992
10.965
10.628
10.141
10.0102
10.0102
10.1406
10.6258
10.969
10.5992
10.6001
10.9651
10.628
10.141
10.0102
10
10.0146
10.158
10.5487
10.965
10.9651
10.5484
10.1582
10.0146
10
10
10
10.017
10.1582
10.628
10.628
10.1582
10.017
10
10
10
10
10
10.0146
10.141
10.141
10.0146
10
10
10
10
10
10
10
10.0102
10.0102
10
10
10
10
</DataArray>
<DataArray Name="hu" type="Float32" format="ascii">
0
0
0
0
0
0
0
0
0
0
0
0
0
-0.0502192
-0.0502192
0.0502192
0.0502192
0
0
0
0
0
-0.0843793
-0.717115
-0.63084
0.63084
0.717115
0.0843794
0
0
0
-0.0946913
-0.984927
-3.39519
-2.44697
2.44693
3.3952
0.985007
0.0947144
0
-0.1009
-1.4735
-7.42248
-14.2258
-7.75795
7.74408
14.2337
7.449
1.47772
0.100994
-0.1009
-1.4735
-7.42248
-14.2271
-7.75895
7.74508
14.235
7.449
1.47772
0.100994
0
-0.0946913
-0.984877
-3.39219
-2.44413
2.44408
3.39221
0.98496
0.0947144
0
0
0
-0.0844236
-0.718827
-0.632501
0.632501
0.718827
0.0844237
0
0
0
0
0
-0.0502655
-0.0502655
0.0502655
0.0502655
0
0
0
0
0
0
0
0
0
0
0
0
0
</DataArray>
<DataArray Name="hv" type="Float32" format="ascii">
0
0
0
0
-0.1009
-0.1009
0
0
0
0
0
0
0
-0.0946913
-1.4735
-1.4735
-0.0946913
0
0
0
0
0
-0.0843793
-0.984927
-7.42248
-7.42248
-0.984877
-0.0844236
0
0
0
-0.0502192
-0.717115
-3.39519
-14.2258
-14.2271
-3.39219
-0.718827
-0.0502655
0
0
-0.0502192
-0.63084
-2.44697
-7.75795
-7.75895
-2.44413
-0.632501
-0.0502655
0
0
0.0502192
0.63084
2.44693
7.74408
7.74508
2.44408
0.632501
0.0502655
0
0
0.0502192
0.717115
3.3952
14.2337
14.235
3.39221
0.718827
0.0502655
0
0
0
0.0843794
0.985007
7.449
7.449
0.98496
0.0844237
0
0
0
0
0
0.0947144
1.47772
1.47772
0.0947144
0
0
0
0
0
0
0
0.100994
0.100994
0
0
0
0
</DataArray>
<DataArray Name="b" type="Float32" format="ascii">
0
0
0
0
0
0
0
0
0
0
0
0
0
0
0
0
0
0
0
0
0
0
0
0
0
0
0
0
0
0
0
0
0
0
0
0
0
0
0
0
0
0
0
0
0
0
0
0
0
0
0
0
0
0
0
0
0
0
0
0
0
0
0
0
0
0
0
0
0
0
0
0
0
0
0
0
0
0
0
0
0
0
0
0
0
0
0
0
0
0
0
0
0
0
0
0
0
0
0
0
</DataArray>
</CellData>
</Piece>
</StructuredGrid>
</VTKFile>
