<?xml version="1.0"?>
<VTKFile type="StructuredGrid">
<StructuredGrid WholeExtent="0 10 0 10 0 0">
<Piece Extent="0 10 0 10 0 0">
<Points>
<DataArray NumberOfComponents="3" type="Float32" format="ascii">
0 0 0
100 0 0
200 0 0
300 0 0
400 0 0
500 0 0
600 0 0
700 0 0
800 0 0
900 0 0
1000 0 0
0 100 0
100 100 0
200 100 0
300 100 0
400 100 0
500 100 0
600 100 0
700 100 0
800 100 0
900 100 0
1000 100 0
0 200 0
100 200 0
200 200 0
300 200 0
400 200 0
500 200 0
600 200 0
700 200 0
800 200 0
900 200 0
1000 200 0
0 300 0
100 300 0
200 300 0
300 300 0
400 300 0
500 300 0
600 300 0
700 300 0
800 300 0
900 300 0
1000 300 0
0 400 0
100 400 0
200 400 0
300 400 0
400 400 0
500 400 0
600 400 0
700 400 0
800 400 0
900 400 0
1000 400 0
0 500 0
100 500 0
200 500 0
300 500 0
400 500 0
500 500 0
600 500 0
700 500 0
800 500 0
900 500 0
1000 500 0
0 600 0
100 600 0
200 600 0
300 600 0
400 600 0
500 600 0
600 600 0
700 600 0
800 600 0
900 600 0
1000 600 0
0 700 0
100 700 0
200 700 0
300 700 0
400 700 0
500 700 0
600 700 0
700 700 0
800 700 0
900 700 0
1000 700 0
0 800 0
100 800 0
200 800 0
300 800 0
400 800 0
500 800 0
600 800 0
700 800 0
800 800 0
900 800 0
1000 800 0
0 900 0
100 900 0
200 900 0
300 900 0
400 900 0
500 900 0
600 900 0
700 900 0
800 900 0
900 900 0
1000 900 0
0 1000 0
100 1000 0
200 1000 0
300 1000 0
400 1000 0
500 1000 0
600 1000 0
700 1000 0
800 1000 0
900 1000 0
1000 1000 0
</DataArray>
</Points>
<CellData>
<DataArray Name="h" type="Float32" format="ascii">
10
10
10
10
10
10
10
10
10
10
10
10
10
10
10
10
10
10
10
10
10
10
10
10
10.0817
10.0817
10
10
10
10
10
10
10
10.0767
10.7649
10.7649
10.0767
10
10
10
10
10
10.0817
10.7649
13.2302
13.2302
10.7648
10.0818
10
10
10
10
10.0817
10.7649
13.2302
13.2302
10.7648
10.0818
10
10
10
10
10
10.0767
10.7648
10.7648
10.0767
10
10
10
10
10
10
10
10.0818
10.0818
10
10
10
10
10
10
10
10
10
10
10
10
10
10
10
10
10
10
10
10
10
10
10
10
</DataArray>
<DataArray Name="hu" type="Float32" format="ascii">
0
0
0
0
0
0
0
0
0
0
0
0
0
0
0
0
0
0
0
0
0
0
0
0
0
0
0
0
0
0
0
0
0
-0.383546
-0.383546
0.383546
0.383546
0
0
0
0
0
-0.834656
-8.93771
-7.67557
7.67557
8.93841
0.835395
0
0
0
0
-0.834656
-8.93771
-7.67557
7.67557
8.93841
0.835395
0
0
0
0
0
-0.383546
-0.383546
0.383546
0.383546
0
0
0
0
0
0
0
0
0
0
0
0
0
0
0
0
0
0
0
0
0
0
0
0
0
0
0
0
0
0
0
0
0
</DataArray>
<DataArray Name="hv" type="Float32" format="ascii">
0
0
0
0
0
0
0
0
0
0
0
0
0
0
0
0
0
0
0
0
0
0
0
0
-0.834656
-0.834656
0
0
0
0
0
0
0
-0.383546
-8.93771
-8.93771
-0.383546
0
0
0
0
0
0
-0.383546
-7.67557
-7.67557
-0.383546
0
0
0
0
0
0
0.383546
7.67557
7.67557
0.383546
0
0
0
0
0
0
0.383546
8.93841
8.93841
0.383546
0
0
0
0
0
0
0
0.835395
0.835395
0
0
0
0
0
0
0
0
0
0
0
0
0
0
0
0
0
0
0
0
0
0
0
0
</DataArray>
<DataArray Name="b" type="Float32" format="ascii">
0
0
0
0
0
0
0
0
0
0
0
0
0
0
0
0
0
0
0
0
0
0
0
0
0
0
0
0
0
0
0
0
0
0
0
0
0
0
0
0
0
0
0
0
0
0
0
0
0
0
0
0
0
0
0
0
0
0
0
0
0
0
0
0
0
0
0
0
0
0
0
0
0
0
0
0
0
0
0
0
0
0
0
0
0
0
0
0
0
0
0
0
0
0
0
0
0
0
0
0
</DataArray>
</CellData>
</Piece>
</StructuredGrid>
</VTKFile>
